VARIABLES = "X", "Y","Z"
Zone T=interpolated I=25 J = 25
DATAPACKING=POINT
0.945668 0.030663 0.220799 
0.945443 0.014790 0.222435 
0.945586 -0.001169 0.222886 
0.946061 -0.017130 0.222179 
0.946834 -0.033011 0.220339 
0.947868 -0.048731 0.217392 
0.949128 -0.064206 0.213363 
0.950579 -0.079354 0.208278 
0.952186 -0.094094 0.202163 
0.953913 -0.108342 0.195044 
0.955724 -0.122016 0.186946 
0.957584 -0.135034 0.177895 
0.959458 -0.147313 0.167917 
0.961320 -0.158781 0.157046 
0.963177 -0.169403 0.145350 
0.965050 -0.179156 0.132906 
0.966954 -0.188014 0.119793 
0.968910 -0.195953 0.106086 
0.970934 -0.202948 0.091863 
0.973045 -0.208976 0.077201 
0.975260 -0.214011 0.062176 
0.977599 -0.218028 0.046867 
0.980078 -0.221005 0.031350 
0.982717 -0.222915 0.015702 
0.985533 -0.223734 -0.000000 
0.992504 0.011599 0.223231 
0.992828 -0.003462 0.223473 
0.993402 -0.018464 0.222700 
0.994207 -0.033351 0.220934 
0.995221 -0.048065 0.218193 
0.996423 -0.062550 0.214498 
0.997793 -0.076748 0.209869 
0.999310 -0.090602 0.204327 
1.000954 -0.104054 0.197891 
1.002703 -0.117047 0.190583 
1.004537 -0.129525 0.182421 
1.006435 -0.141429 0.173428 
1.008376 -0.152702 0.163621 
1.010345 -0.163292 0.153029 
1.012346 -0.173159 0.141700 
1.014386 -0.182268 0.129688 
1.016474 -0.190584 0.117050 
1.018620 -0.198072 0.103841 
1.020830 -0.204697 0.090114 
1.023115 -0.210423 0.075927 
1.025482 -0.215216 0.061334 
1.027940 -0.219041 0.046389 
1.030497 -0.221862 0.031148 
1.033163 -0.223644 0.015667 
1.035945 -0.224353 -0.000000 
1.040911 -0.003494 0.224322 
1.041388 -0.017885 0.223419 
1.042116 -0.032118 0.221680 
1.043074 -0.046155 0.219114 
1.044239 -0.059954 0.215730 
1.045589 -0.073477 0.211537 
1.047102 -0.086682 0.206544 
1.048756 -0.099531 0.200759 
1.050529 -0.111983 0.194192 
1.052397 -0.123997 0.186851 
1.054340 -0.135536 0.178745 
1.056334 -0.146557 0.169884 
1.058358 -0.157022 0.160275 
1.060395 -0.166890 0.149935 
1.062449 -0.176122 0.138900 
1.064532 -0.184678 0.127215 
1.066655 -0.192520 0.114923 
1.068828 -0.199608 0.102068 
1.071061 -0.205902 0.088694 
1.073365 -0.211364 0.074845 
1.075752 -0.215953 0.060564 
1.078231 -0.219631 0.045895 
1.080814 -0.222358 0.030882 
1.083511 -0.224095 0.015569 
1.086332 -0.224803 -0.000000 
1.090552 -0.015171 0.224437 
1.091082 -0.029046 0.222798 
1.091865 -0.042690 0.220432 
1.092878 -0.056077 0.217344 
1.094099 -0.069179 0.213535 
1.095504 -0.081969 0.209009 
1.097071 -0.094421 0.203769 
1.098778 -0.106507 0.197819 
1.100601 -0.118200 0.191161 
1.102517 -0.129473 0.183799 
1.104505 -0.140298 0.175735 
1.106541 -0.150650 0.166974 
1.108603 -0.160500 0.157517 
1.110673 -0.169819 0.147373 
1.112757 -0.178567 0.136572 
1.114865 -0.186700 0.125148 
1.117008 -0.194176 0.113135 
1.119196 -0.200951 0.100569 
1.121442 -0.206982 0.087483 
1.123754 -0.212226 0.073913 
1.126144 -0.216640 0.059893 
1.128623 -0.220182 0.045457 
1.131201 -0.222807 0.030639 
1.133889 -0.224473 0.015476 
1.136698 -0.225136 -0.000000 
1.141098 -0.023989 0.223943 
1.141645 -0.037466 0.221858 
1.142439 -0.050664 0.219105 
1.143460 -0.063565 0.215686 
1.144684 -0.076149 0.211603 
1.146090 -0.088399 0.206855 
1.147656 -0.100296 0.201446 
1.149360 -0.111822 0.195376 
1.151178 -0.122957 0.188648 
1.153090 -0.133684 0.181262 
1.155073 -0.143983 0.173220 
1.157105 -0.153837 0.164523 
1.159164 -0.163226 0.155174 
1.161233 -0.172129 0.145177 
1.163316 -0.180503 0.134556 
1.165423 -0.188306 0.123339 
1.167564 -0.195492 0.111551 
1.169747 -0.202016 0.099221 
1.171983 -0.207834 0.086375 
1.174282 -0.212900 0.073041 
1.176652 -0.217172 0.059246 
1.179104 -0.220603 0.045017 
1.181647 -0.223149 0.030382 
1.184291 -0.224765 0.015367 
1.187045 -0.225407 -0.000000 
1.192210 -0.030504 0.223203 
1.192748 -0.043673 0.220877 
1.193529 -0.056538 0.217907 
1.194531 -0.069085 0.214297 
1.195733 -0.081301 0.210048 
1.197114 -0.093172 0.205163 
1.198652 -0.104683 0.199642 
1.200326 -0.115822 0.193490 
1.202114 -0.126574 0.186706 
1.203994 -0.136925 0.179295 
1.205946 -0.146862 0.171257 
1.207947 -0.156370 0.162596 
1.209977 -0.165436 0.153312 
1.212019 -0.174041 0.143411 
1.214076 -0.182144 0.132914 
1.216156 -0.189701 0.121841 
1.218270 -0.196667 0.110215 
1.220424 -0.202995 0.098059 
1.222629 -0.208642 0.085395 
1.224891 -0.213561 0.072246 
1.227221 -0.217707 0.058633 
1.229626 -0.221036 0.044580 
1.232115 -0.223503 0.030108 
1.234696 -0.225061 0.015241 
1.237379 -0.225666 -0.000000 
1.243548 -0.035272 0.222583 
1.244082 -0.048230 0.220127 
1.244850 -0.060867 0.217031 
1.245832 -0.073173 0.213300 
1.247007 -0.085138 0.208937 
1.248355 -0.096748 0.203947 
1.249855 -0.107995 0.198335 
1.251488 -0.118867 0.192105 
1.253233 -0.129353 0.185261 
1.255068 -0.139442 0.177808 
1.256975 -0.149124 0.169750 
1.258932 -0.158386 0.161092 
1.260919 -0.167219 0.151839 
1.262921 -0.175606 0.141996 
1.264939 -0.183508 0.131580 
1.266982 -0.190879 0.120610 
1.269057 -0.197675 0.109105 
1.271172 -0.203852 0.097082 
1.273333 -0.209364 0.084561 
1.275549 -0.214166 0.071559 
1.277827 -0.218214 0.058096 
1.280174 -0.221463 0.044190 
1.282598 -0.223868 0.029860 
1.285107 -0.225384 0.015123 
1.287707 -0.225966 -0.000000 
1.294873 -0.038692 0.222377 
1.295402 -0.051495 0.219752 
1.296158 -0.063971 0.216507 
1.297122 -0.076111 0.212646 
1.298273 -0.087906 0.208172 
1.299593 -0.099345 0.203089 
1.301060 -0.110418 0.197402 
1.302657 -0.121117 0.191113 
1.304362 -0.131430 0.184226 
1.306156 -0.141349 0.176747 
1.308020 -0.150864 0.168677 
1.309934 -0.159964 0.160022 
1.311878 -0.168640 0.150785 
1.313837 -0.176877 0.140971 
1.315813 -0.184636 0.130598 
1.317813 -0.191874 0.119682 
1.319844 -0.198547 0.108242 
1.321913 -0.204612 0.096295 
1.324027 -0.210024 0.083860 
1.326192 -0.214740 0.070955 
1.328416 -0.218716 0.057597 
1.330705 -0.221909 0.043805 
1.333065 -0.224275 0.029596 
1.335505 -0.225770 0.014988 
1.338031 -0.226350 -0.000000 
1.346136 -0.040523 0.222596 
1.346669 -0.053241 0.219814 
1.347418 -0.065640 0.216433 
1.348364 -0.077709 0.212455 
1.349489 -0.089437 0.207883 
1.350775 -0.100813 0.202719 
1.352204 -0.111826 0.196965 
1.353757 -0.122465 0.190624 
1.355416 -0.132720 0.183697 
1.357164 -0.142578 0.176186 
1.358981 -0.152030 0.168095 
1.360850 -0.161063 0.159425 
1.362752 -0.169668 0.150178 
1.364673 -0.177828 0.140360 
1.366615 -0.185507 0.129987 
1.368582 -0.192665 0.119078 
1.370581 -0.199259 0.107653 
1.372617 -0.205249 0.095732 
1.374694 -0.210594 0.083333 
1.376820 -0.215253 0.070476 
1.378998 -0.219184 0.057180 
1.381235 -0.222347 0.043466 
1.383536 -0.224700 0.029351 
1.385906 -0.226203 0.014856 
1.388351 -0.226814 -0.000000 
1.397355 -0.040365 0.223178 
1.397891 -0.053075 0.220379 
1.398631 -0.065494 0.216973 
1.399558 -0.077605 0.212963 
1.400657 -0.089394 0.208353 
1.401909 -0.100845 0.203144 
1.403298 -0.111943 0.197342 
1.404808 -0.122674 0.190947 
1.406422 -0.133022 0.183963 
1.408123 -0.142971 0.176393 
1.409895 -0.152507 0.168240 
1.411721 -0.161614 0.159507 
1.413584 -0.170278 0.150196 
1.415472 -0.178478 0.140315 
1.417383 -0.186181 0.129881 
1.419323 -0.193348 0.118916 
1.421295 -0.199940 0.107443 
1.423303 -0.205918 0.095484 
1.425350 -0.211245 0.083061 
1.427440 -0.215880 0.070195 
1.429577 -0.219787 0.056908 
1.431765 -0.222925 0.043224 
1.434008 -0.225257 0.029163 
1.436308 -0.226743 0.014748 
1.438671 -0.227346 -0.000000 
1.448568 -0.037996 0.224060 
1.449093 -0.050815 0.221462 
1.449820 -0.063383 0.218201 
1.450731 -0.075678 0.214287 
1.451810 -0.087679 0.209726 
1.453040 -0.099363 0.204527 
1.454406 -0.110708 0.198697 
1.455890 -0.121691 0.192244 
1.457475 -0.132291 0.185176 
1.459147 -0.142485 0.177500 
1.460886 -0.152251 0.169223 
1.462679 -0.161568 0.160355 
1.464506 -0.170412 0.150901 
1.466356 -0.178760 0.140874 
1.468229 -0.186578 0.130296 
1.470128 -0.193832 0.119193 
1.472057 -0.200486 0.107593 
1.474020 -0.206506 0.095520 
1.476019 -0.211856 0.083001 
1.478059 -0.216502 0.070063 
1.480142 -0.220407 0.056732 
1.482274 -0.223538 0.043034 
1.484456 -0.225859 0.028995 
1.486694 -0.227335 0.014641 
1.488989 -0.227931 -0.000000 
1.499768 -0.033896 0.225163 
1.500298 -0.046966 0.222839 
1.501025 -0.059823 0.219786 
1.501932 -0.072437 0.216018 
1.503002 -0.084779 0.211547 
1.504220 -0.096818 0.206387 
1.505569 -0.108527 0.200550 
1.507033 -0.119875 0.194050 
1.508595 -0.130832 0.186899 
1.510239 -0.141370 0.179111 
1.511948 -0.151458 0.170698 
1.513706 -0.161067 0.161674 
1.515497 -0.170167 0.152052 
1.517307 -0.178730 0.141847 
1.519138 -0.186723 0.131088 
1.520991 -0.194116 0.119808 
1.522872 -0.200879 0.108036 
1.524783 -0.206980 0.095806 
1.526728 -0.212388 0.083149 
1.528710 -0.217072 0.070095 
1.530734 -0.221002 0.056678 
1.532802 -0.224147 0.042928 
1.534918 -0.226474 0.028877 
1.537085 -0.227955 0.014557 
1.539308 -0.228557 -0.000000 
1.550963 -0.028724 0.226402 
1.551493 -0.042112 0.224378 
1.552220 -0.055324 0.221559 
1.553127 -0.068324 0.217964 
1.554196 -0.081074 0.213609 
1.555410 -0.093538 0.208513 
1.556753 -0.105677 0.202692 
1.558207 -0.117454 0.196165 
1.559755 -0.128833 0.188947 
1.561381 -0.139776 0.181058 
1.563066 -0.150245 0.172514 
1.564796 -0.160204 0.163332 
1.566551 -0.169615 0.153531 
1.568319 -0.178443 0.143130 
1.570101 -0.186658 0.132166 
1.571901 -0.194234 0.120676 
1.573723 -0.201145 0.108699 
1.575571 -0.207362 0.096275 
1.577451 -0.212859 0.083440 
1.579367 -0.217609 0.070235 
1.581322 -0.221585 0.056698 
1.583321 -0.224760 0.042868 
1.585369 -0.227107 0.028782 
1.587470 -0.228599 0.014480 
1.589628 -0.229209 -0.000000 
1.602158 -0.023135 0.227696 
1.602698 -0.036868 0.225963 
1.603432 -0.050462 0.223375 
1.604343 -0.063872 0.219954 
1.605412 -0.077054 0.215721 
1.606624 -0.089962 0.210698 
1.607960 -0.102551 0.204904 
1.609403 -0.114778 0.198361 
1.610936 -0.126596 0.191090 
1.612541 -0.137962 0.183112 
1.614202 -0.148830 0.174448 
1.615900 -0.159156 0.165118 
1.617618 -0.168894 0.155145 
1.619343 -0.178004 0.144553 
1.621076 -0.186458 0.133383 
1.622823 -0.194234 0.121682 
1.624587 -0.201309 0.109495 
1.626374 -0.207659 0.096868 
1.628189 -0.213261 0.083846 
1.630038 -0.218092 0.070476 
1.631924 -0.222129 0.056804 
1.633854 -0.225349 0.042874 
1.635831 -0.227729 0.028733 
1.637861 -0.229245 0.014426 
1.639950 -0.229874 -0.000000 
1.653361 -0.017786 0.228962 
1.653901 -0.031840 0.227463 
1.654635 -0.045792 0.225069 
1.655546 -0.059591 0.221803 
1.656614 -0.073185 0.217687 
1.657823 -0.086520 0.212742 
1.659154 -0.099544 0.206992 
1.660589 -0.112206 0.200457 
1.662109 -0.124453 0.193161 
1.663697 -0.136233 0.185126 
1.665335 -0.147494 0.176373 
1.667004 -0.158183 0.166924 
1.668687 -0.168249 0.156802 
1.670368 -0.177644 0.146035 
1.672052 -0.186342 0.134670 
1.673742 -0.194323 0.122761 
1.675446 -0.201568 0.110363 
1.677169 -0.208055 0.097529 
1.678917 -0.213763 0.084313 
1.680697 -0.218674 0.070768 
1.682513 -0.222766 0.056948 
1.684374 -0.226019 0.042908 
1.686283 -0.228413 0.028701 
1.688248 -0.229926 0.014380 
1.690274 -0.230540 -0.000000 
1.704583 -0.013331 0.230116 
1.705131 -0.027677 0.228868 
1.705869 -0.041948 0.226676 
1.706776 -0.056086 0.223565 
1.707837 -0.070033 0.219561 
1.709033 -0.083733 0.214688 
1.710346 -0.097127 0.208972 
1.711759 -0.110159 0.202437 
1.713254 -0.122771 0.195107 
1.714813 -0.134906 0.187009 
1.716417 -0.146506 0.178166 
1.718051 -0.157514 0.168603 
1.719695 -0.167872 0.158346 
1.721336 -0.177530 0.147425 
1.722975 -0.186460 0.135894 
1.724619 -0.194641 0.123811 
1.726274 -0.202053 0.111236 
1.727945 -0.208676 0.098227 
1.729639 -0.214489 0.084844 
1.731361 -0.219471 0.071147 
1.733117 -0.223601 0.057193 
1.734913 -0.226858 0.043042 
1.736755 -0.229223 0.028754 
1.738649 -0.230675 0.014387 
1.740601 -0.231192 -0.000000 
1.755820 -0.010284 0.231095 
1.756357 -0.024858 0.230045 
1.757081 -0.039376 0.228010 
1.757975 -0.053777 0.225018 
1.759020 -0.067999 0.221096 
1.760198 -0.081979 0.216272 
1.761491 -0.095658 0.210573 
1.762882 -0.108972 0.204026 
1.764352 -0.121860 0.196659 
1.765883 -0.134262 0.188499 
1.767458 -0.146113 0.179574 
1.769057 -0.157355 0.169910 
1.770665 -0.167923 0.159535 
1.772265 -0.177765 0.148483 
1.773861 -0.186853 0.136811 
1.775459 -0.195166 0.124582 
1.777064 -0.202685 0.111861 
1.778684 -0.209389 0.098712 
1.780323 -0.215258 0.085196 
1.781990 -0.220273 0.071380 
1.783688 -0.224412 0.057325 
1.785426 -0.227656 0.043096 
1.787208 -0.229985 0.028756 
1.789042 -0.231379 0.014370 
1.790933 -0.231817 -0.000000 
1.807111 -0.008567 0.231906 
1.807641 -0.023339 0.230989 
1.808352 -0.038056 0.229051 
1.809228 -0.052655 0.226125 
1.810252 -0.067073 0.222240 
1.811404 -0.081245 0.217426 
1.812668 -0.095109 0.211713 
1.814027 -0.108602 0.205132 
1.815462 -0.121660 0.197713 
1.816957 -0.134220 0.189486 
1.818493 -0.146219 0.180481 
1.820054 -0.157594 0.170729 
1.821621 -0.168282 0.160260 
1.823181 -0.178226 0.149109 
1.824737 -0.187399 0.137338 
1.826293 -0.195782 0.125011 
1.827855 -0.203355 0.112196 
1.829429 -0.210098 0.098958 
1.831022 -0.215992 0.085363 
1.832637 -0.221016 0.071478 
1.834283 -0.225151 0.057367 
1.835963 -0.228376 0.043098 
1.837684 -0.230673 0.028737 
1.839451 -0.232021 0.014348 
1.841271 -0.232401 -0.000000 
1.858490 -0.007956 0.232578 
1.859015 -0.022861 0.231703 
1.859713 -0.037705 0.229788 
1.860570 -0.052425 0.226866 
1.861567 -0.066958 0.222968 
1.862688 -0.081238 0.218127 
1.863917 -0.095203 0.212376 
1.865236 -0.108789 0.205746 
1.866630 -0.121933 0.198270 
1.868082 -0.134569 0.189981 
1.869574 -0.146636 0.180910 
1.871090 -0.158069 0.171090 
1.872614 -0.168804 0.160553 
1.874132 -0.178786 0.149338 
1.875646 -0.187987 0.137505 
1.877160 -0.196389 0.125122 
1.878680 -0.203974 0.112256 
1.880210 -0.210721 0.098974 
1.881755 -0.216613 0.085344 
1.883320 -0.221629 0.071432 
1.884910 -0.225753 0.057305 
1.886529 -0.228963 0.043032 
1.888183 -0.231243 0.028678 
1.889877 -0.232572 0.014312 
1.891614 -0.232931 -0.000000 
1.909948 -0.008369 0.233084 
1.910452 -0.023299 0.232136 
1.911126 -0.038172 0.230151 
1.911954 -0.052925 0.227163 
1.912919 -0.067491 0.223203 
1.914005 -0.081805 0.218303 
1.915197 -0.095802 0.212496 
1.916477 -0.109415 0.205813 
1.917829 -0.122579 0.198287 
1.919237 -0.135229 0.189950 
1.920686 -0.147299 0.180834 
1.922159 -0.158723 0.170971 
1.923639 -0.169437 0.160393 
1.925113 -0.179382 0.149139 
1.926583 -0.188536 0.137271 
1.928053 -0.196885 0.124859 
1.929527 -0.204413 0.111970 
1.931009 -0.211106 0.098674 
1.932503 -0.216950 0.085041 
1.934014 -0.221929 0.071138 
1.935545 -0.226030 0.057035 
1.937102 -0.229237 0.042801 
1.938687 -0.231537 0.028504 
1.940305 -0.232914 0.014214 
1.941961 -0.233353 -0.000000 
1.961363 -0.010285 0.233190 
1.961859 -0.025125 0.232068 
1.962514 -0.039910 0.229931 
1.963316 -0.054574 0.226810 
1.964248 -0.069051 0.222735 
1.965296 -0.083275 0.217739 
1.966445 -0.097179 0.211852 
1.967679 -0.110698 0.205105 
1.968984 -0.123766 0.197530 
1.970345 -0.136316 0.189157 
1.971746 -0.148282 0.180019 
1.973173 -0.159599 0.170145 
1.974611 -0.170200 0.159568 
1.976047 -0.180028 0.148325 
1.977482 -0.189064 0.136478 
1.978918 -0.197297 0.124096 
1.980357 -0.204715 0.111249 
1.981802 -0.211308 0.098006 
1.983256 -0.217065 0.084435 
1.984721 -0.221975 0.070606 
1.986200 -0.226028 0.056587 
1.987695 -0.229213 0.042448 
1.989210 -0.231518 0.028258 
1.990746 -0.232933 0.014086 
1.992306 -0.233448 -0.000000 
2.012556 -0.014321 0.232606 
2.013049 -0.028940 0.231236 
2.013693 -0.043493 0.228878 
2.014477 -0.057915 0.225564 
2.015384 -0.072142 0.221323 
2.016403 -0.086109 0.216188 
2.017518 -0.099752 0.210189 
2.018716 -0.113007 0.203356 
2.019983 -0.125807 0.195721 
2.021306 -0.138091 0.187315 
2.022670 -0.149792 0.178168 
2.024062 -0.160846 0.168312 
2.025468 -0.171189 0.157776 
2.026876 -0.180766 0.146599 
2.028285 -0.189560 0.134841 
2.029697 -0.197564 0.122569 
2.031111 -0.204773 0.109849 
2.032528 -0.211178 0.096748 
2.033951 -0.216774 0.083334 
2.035379 -0.221552 0.069673 
2.036814 -0.225507 0.055831 
2.038256 -0.228632 0.041877 
2.039707 -0.230919 0.027875 
2.041168 -0.232363 0.013894 
2.042639 -0.232955 -0.000000 
2.063347 -0.021097 0.231043 
2.063855 -0.035350 0.229340 
2.064504 -0.049500 0.226686 
2.065284 -0.063487 0.223113 
2.066180 -0.077255 0.218652 
2.067181 -0.090745 0.213336 
2.068275 -0.103898 0.207195 
2.069449 -0.116657 0.200261 
2.070690 -0.128964 0.192566 
2.071987 -0.140759 0.184141 
2.073326 -0.151986 0.175018 
2.074697 -0.162585 0.165227 
2.076085 -0.172498 0.154802 
2.077481 -0.181677 0.143777 
2.078881 -0.190105 0.132209 
2.080286 -0.197777 0.120159 
2.081693 -0.204685 0.107687 
2.083102 -0.210823 0.094854 
2.084513 -0.216184 0.081720 
2.085923 -0.220762 0.068346 
2.087333 -0.224550 0.054793 
2.088740 -0.227542 0.041121 
2.090145 -0.229731 0.027391 
2.091547 -0.231110 0.013664 
2.092943 -0.231673 -0.000000 
2.113561 -0.031232 0.228214 
2.114109 -0.044880 0.226000 
2.114790 -0.058372 0.222909 
2.115592 -0.071661 0.218970 
2.116504 -0.084697 0.214215 
2.117514 -0.097434 0.208673 
2.118613 -0.109824 0.202373 
2.119788 -0.121817 0.195347 
2.121028 -0.133365 0.187624 
2.122322 -0.144422 0.179234 
2.123659 -0.154938 0.170207 
2.125027 -0.164866 0.160574 
2.126415 -0.174157 0.150365 
2.127814 -0.182769 0.139612 
2.129220 -0.190688 0.128365 
2.130630 -0.197903 0.116674 
2.132044 -0.204404 0.104591 
2.133457 -0.210184 0.092168 
2.134870 -0.215232 0.079456 
2.136278 -0.219538 0.066506 
2.137681 -0.223094 0.053371 
2.139076 -0.225890 0.040101 
2.140462 -0.227917 0.026748 
2.141835 -0.229165 0.013364 
2.143195 -0.229625 -0.000000 
2.163008 -0.045342 0.223829 
2.163461 -0.058027 0.220814 
2.164106 -0.070517 0.217071 
2.164924 -0.082775 0.212623 
2.165894 -0.094760 0.207492 
2.166997 -0.106436 0.201697 
2.168212 -0.117763 0.195261 
2.169519 -0.128704 0.188205 
2.170897 -0.139219 0.180549 
2.172326 -0.149270 0.172316 
2.173787 -0.158820 0.163526 
2.175258 -0.167829 0.154201 
2.176720 -0.176259 0.144361 
2.178156 -0.184077 0.134032 
2.179568 -0.191269 0.123253 
2.180959 -0.197826 0.112065 
2.182335 -0.203741 0.100512 
2.183700 -0.209004 0.088635 
2.185060 -0.213607 0.076477 
2.186419 -0.217542 0.064080 
2.187782 -0.220800 0.051487 
2.189153 -0.223373 0.038740 
2.190538 -0.225251 0.025882 
2.191941 -0.226427 0.012954 
2.193367 -0.226892 -0.000000 
Zone T=control_pts I=5 J = 39
DATAPACKING=POINT
0.945668 0.030663 0.220799 
0.943985 -0.032549 0.229746 
0.959979 -0.167016 0.189554 
0.973891 -0.222670 0.062812 
0.985533 -0.223734 -0.000000 
0.951409 0.028009 0.221202 
0.951464 -0.034799 0.229752 
0.962831 -0.166868 0.188003 
0.981049 -0.223731 0.063094 
0.991836 -0.223824 -0.000000 
0.962983 0.022912 0.221928 
0.962923 -0.039253 0.228727 
0.976583 -0.167620 0.186256 
0.993231 -0.223498 0.063089 
1.004442 -0.223994 -0.000000 
0.986465 0.013529 0.223086 
0.987184 -0.047066 0.226781 
1.001474 -0.168927 0.183192 
1.018312 -0.223694 0.062992 
1.029647 -0.224296 -0.000000 
1.016403 0.003243 0.224030 
1.017574 -0.055661 0.224201 
1.033073 -0.170403 0.180089 
1.049625 -0.223822 0.062864 
1.061143 -0.224609 -0.000000 
1.046993 -0.005309 0.224430 
1.048429 -0.062827 0.221902 
1.064459 -0.171598 0.177456 
1.081060 -0.224143 0.062685 
1.092630 -0.224855 -0.000000 
1.071783 -0.011228 0.224503 
1.073331 -0.067896 0.220360 
1.089600 -0.172408 0.175368 
1.106291 -0.224441 0.062664 
1.117814 -0.225024 -0.000000 
1.096781 -0.016575 0.224435 
1.098375 -0.072212 0.218977 
1.114851 -0.173475 0.173733 
1.131500 -0.224578 0.062402 
1.142993 -0.225176 -0.000000 
1.128331 -0.022251 0.224135 
1.130015 -0.077038 0.217453 
1.146351 -0.174400 0.171431 
1.163152 -0.224745 0.062281 
1.174461 -0.225344 -0.000000 
1.179320 -0.029503 0.223403 
1.180936 -0.082903 0.215345 
1.197101 -0.176035 0.168784 
1.213735 -0.225138 0.061749 
1.224798 -0.225596 -0.000000 
1.243572 -0.035717 0.222401 
1.245238 -0.088132 0.214028 
1.260621 -0.177866 0.165668 
1.277160 -0.225544 0.061329 
1.287708 -0.225931 -0.000000 
1.298085 -0.039107 0.222322 
1.299677 -0.090865 0.212987 
1.314903 -0.179108 0.164566 
1.330870 -0.225972 0.060612 
1.341176 -0.226366 -0.000000 
1.330127 -0.040157 0.222483 
1.331873 -0.091769 0.212731 
1.346430 -0.179932 0.164001 
1.362652 -0.226074 0.060378 
1.372626 -0.226661 -0.000000 
1.342934 -0.040489 0.222566 
1.344573 -0.091997 0.212644 
1.359270 -0.180124 0.164025 
1.375217 -0.226218 0.060120 
1.385207 -0.226782 -0.000000 
1.358944 -0.040735 0.222701 
1.360685 -0.092160 0.212701 
1.374990 -0.180553 0.163796 
1.391130 -0.226226 0.060035 
1.400931 -0.226940 -0.000000 
1.374950 -0.040735 0.222878 
1.376597 -0.092136 0.212760 
1.391011 -0.180689 0.163897 
1.406872 -0.226555 0.059790 
1.416656 -0.227105 -0.000000 
1.387750 -0.040578 0.223042 
1.389501 -0.092017 0.212947 
1.403517 -0.181099 0.163875 
1.419625 -0.226627 0.059752 
1.429236 -0.227241 -0.000000 
1.419765 -0.039915 0.223490 
1.421390 -0.091219 0.213760 
1.435425 -0.181750 0.164226 
1.451176 -0.227055 0.059324 
1.460685 -0.227589 -0.000000 
1.474173 -0.036647 0.224522 
1.475906 -0.088692 0.216006 
1.489434 -0.182794 0.165046 
1.505043 -0.227604 0.058923 
1.514149 -0.228227 -0.000000 
1.550962 -0.028880 0.226382 
1.552638 -0.082679 0.219901 
1.566355 -0.183737 0.167947 
1.580852 -0.228603 0.058166 
1.589628 -0.229204 -0.000000 
1.627753 -0.020177 0.228364 
1.629560 -0.076039 0.223879 
1.643123 -0.184214 0.171120 
1.656798 -0.229392 0.057750 
1.665111 -0.230211 -0.000000 
1.682165 -0.014916 0.229657 
1.683864 -0.071864 0.225895 
1.697681 -0.184747 0.173872 
1.710447 -0.230416 0.057354 
1.718582 -0.230913 -0.000000 
1.714190 -0.012639 0.230315 
1.716021 -0.070315 0.227525 
1.729381 -0.184883 0.174666 
1.742191 -0.231274 0.057565 
1.750038 -0.231312 -0.000000 
1.726995 -0.011800 0.230569 
1.728707 -0.069552 0.227820 
1.742291 -0.185281 0.175311 
1.754740 -0.231343 0.057322 
1.762621 -0.231470 -0.000000 
1.743006 -0.010880 0.230871 
1.744822 -0.069101 0.228576 
1.758079 -0.185226 0.175499 
1.770646 -0.231837 0.057500 
1.778349 -0.231665 -0.000000 
1.759023 -0.010122 0.231152 
1.760736 -0.068440 0.228949 
1.774167 -0.185670 0.176110 
1.786378 -0.232014 0.057284 
1.794079 -0.231855 -0.000000 
1.771838 -0.009608 0.231366 
1.773654 -0.068306 0.229526 
1.786728 -0.185577 0.176079 
1.799127 -0.232430 0.057487 
1.806663 -0.232004 -0.000000 
1.803891 -0.008468 0.231882 
1.805582 -0.067516 0.230254 
1.818755 -0.186361 0.176894 
1.830673 -0.232730 0.057150 
1.838124 -0.232373 -0.000000 
1.858451 -0.007625 0.232620 
1.860238 -0.067493 0.231482 
1.872763 -0.186892 0.177054 
1.884594 -0.233769 0.057219 
1.891613 -0.232957 -0.000000 
1.922836 -0.008289 0.233278 
1.924437 -0.068058 0.231521 
1.936662 -0.188428 0.176879 
1.947903 -0.233427 0.056456 
1.954548 -0.233517 -0.000000 
1.974217 -0.010857 0.233191 
1.975874 -0.070135 0.230564 
1.987393 -0.189116 0.175375 
1.998725 -0.233197 0.055978 
2.004892 -0.233451 -0.000000 
2.006196 -0.013530 0.232780 
2.007814 -0.072222 0.229558 
2.019177 -0.189899 0.173805 
2.030381 -0.232236 0.055337 
2.036350 -0.233104 -0.000000 
2.031672 -0.016438 0.232175 
2.033371 -0.074505 0.228110 
2.044407 -0.189781 0.172052 
2.055768 -0.232223 0.055137 
2.061509 -0.232589 -0.000000 
2.057054 -0.019904 0.231367 
2.058770 -0.077299 0.226916 
2.069652 -0.190555 0.170059 
2.081059 -0.231137 0.054534 
2.086661 -0.231920 -0.000000 
2.088602 -0.025363 0.229937 
2.090372 -0.081625 0.223830 
2.101156 -0.190046 0.166618 
2.112622 -0.230506 0.054020 
2.118083 -0.230807 -0.000000 
2.119832 -0.032541 0.227845 
2.121791 -0.087078 0.220634 
2.132441 -0.190813 0.162823 
2.144098 -0.229150 0.053185 
2.149476 -0.229355 -0.000000 
2.144586 -0.039443 0.225715 
2.146590 -0.092184 0.216864 
2.157652 -0.190645 0.158767 
2.169136 -0.227642 0.052496 
2.174566 -0.228007 -0.000000 
2.156886 -0.043305 0.224486 
2.159296 -0.095033 0.214700 
2.169746 -0.190730 0.156928 
2.181755 -0.227333 0.052116 
2.187101 -0.227273 -0.000000 
2.163008 -0.045342 0.223829 
2.164404 -0.096420 0.213247 
2.177432 -0.191075 0.156192 
2.187611 -0.226466 0.051815 
2.193367 -0.226892 -0.000000 
Zone T=interpolated I=25 J = 25
DATAPACKING=POINT
2.193367 0.226909 0.000001 
2.191740 0.226106 0.016763 
2.190187 0.224092 0.033431 
2.188693 0.220896 0.049921 
2.187245 0.216550 0.066150 
2.185830 0.211087 0.082034 
2.184433 0.204537 0.097490 
2.183042 0.196932 0.112435 
2.181642 0.188304 0.126786 
2.180221 0.178683 0.140458 
2.178765 0.168102 0.153370 
2.177260 0.156593 0.165436 
2.175692 0.144185 0.176575 
2.174058 0.130923 0.186711 
2.172389 0.116887 0.195810 
2.170729 0.102174 0.203844 
2.169117 0.086875 0.210786 
2.167597 0.071084 0.216610 
2.166209 0.054896 0.221289 
2.164996 0.038404 0.224797 
2.164000 0.021702 0.227107 
2.163261 0.004882 0.228191 
2.162821 -0.011961 0.228025 
2.162723 -0.028733 0.226580 
2.163008 -0.045342 0.223829 
2.143170 0.229596 0.000001 
2.141728 0.228888 0.016848 
2.140312 0.226986 0.033440 
2.138916 0.223933 0.049722 
2.137537 0.219771 0.065637 
2.136167 0.214542 0.081128 
2.134802 0.208289 0.096139 
2.133437 0.201053 0.110613 
2.132067 0.192876 0.124495 
2.130686 0.183802 0.137727 
2.129290 0.173871 0.150253 
2.127872 0.163127 0.162017 
2.126428 0.151610 0.172962 
2.124958 0.139369 0.183037 
2.123486 0.126466 0.192212 
2.122042 0.112972 0.200461 
2.120655 0.098955 0.207761 
2.119355 0.084484 0.214086 
2.118172 0.069628 0.219410 
2.117134 0.054455 0.223710 
2.116272 0.039036 0.226960 
2.115615 0.023438 0.229136 
2.115193 0.007731 0.230211 
2.115035 -0.008017 0.230163 
2.115172 -0.023736 0.228964 
2.092906 0.231567 0.000001 
2.091500 0.230805 0.016794 
2.090103 0.228917 0.033235 
2.088712 0.225948 0.049284 
2.087327 0.221943 0.064900 
2.085947 0.216947 0.080043 
2.084569 0.211004 0.094674 
2.083192 0.204158 0.108752 
2.081814 0.196456 0.122237 
2.080434 0.187940 0.135090 
2.079050 0.178656 0.147269 
2.077661 0.168649 0.158735 
2.076265 0.157963 0.169448 
2.074865 0.146644 0.179372 
2.073481 0.134744 0.188488 
2.072138 0.122314 0.196778 
2.070860 0.109407 0.204229 
2.069673 0.096076 0.210825 
2.068600 0.082373 0.216549 
2.067667 0.068350 0.221386 
2.066898 0.054060 0.225321 
2.066318 0.039556 0.228339 
2.065952 0.024889 0.230422 
2.065824 0.010112 0.231557 
2.065958 -0.004722 0.231727 
2.042603 0.232832 0.000001 
2.041162 0.231985 0.016668 
2.039726 0.230089 0.032913 
2.038296 0.227190 0.048709 
2.036872 0.223333 0.064026 
2.035452 0.218561 0.078835 
2.034038 0.212921 0.093107 
2.032629 0.206456 0.106814 
2.031224 0.199213 0.119927 
2.029824 0.191234 0.132417 
2.028428 0.182566 0.144256 
2.027036 0.173253 0.155413 
2.025648 0.163339 0.165861 
2.024268 0.152870 0.175575 
2.022915 0.141883 0.184547 
2.021611 0.130419 0.192772 
2.020379 0.118516 0.200247 
2.019242 0.106212 0.206968 
2.018223 0.093546 0.212930 
2.017344 0.080557 0.218130 
2.016629 0.067284 0.222563 
2.016100 0.053765 0.226226 
2.015780 0.040039 0.229114 
2.015692 0.026145 0.231224 
2.015859 0.012121 0.232552 
1.992283 0.233427 0.000001 
1.990800 0.232555 0.016522 
1.989321 0.230691 0.032556 
1.987847 0.227882 0.048084 
1.986379 0.224174 0.063088 
1.984917 0.219616 0.077550 
1.983463 0.214255 0.091451 
1.982017 0.208136 0.104774 
1.980581 0.201309 0.117499 
1.979154 0.193818 0.129609 
1.977740 0.185713 0.141086 
1.976337 0.177039 0.151911 
1.974947 0.167844 0.162066 
1.973575 0.158172 0.171536 
1.972237 0.148048 0.180323 
1.970955 0.137498 0.188433 
1.969748 0.126544 0.195871 
1.968638 0.115209 0.202642 
1.967644 0.103518 0.208752 
1.966789 0.091494 0.214207 
1.966091 0.079159 0.219012 
1.965572 0.066538 0.223172 
1.965252 0.053654 0.226693 
1.965153 0.040531 0.229581 
1.965294 0.027191 0.231840 
1.941953 0.233474 0.000001 
1.940432 0.232633 0.016367 
1.938913 0.230836 0.032179 
1.937396 0.228134 0.047428 
1.935885 0.224580 0.062107 
1.934380 0.220223 0.076208 
1.932885 0.215117 0.089723 
1.931401 0.209312 0.102644 
1.929931 0.202861 0.114964 
1.928476 0.195814 0.126675 
1.927038 0.188223 0.137769 
1.925621 0.180140 0.148237 
1.924225 0.171617 0.158073 
1.922855 0.162696 0.167272 
1.921527 0.153393 0.175843 
1.920258 0.143714 0.183799 
1.919065 0.133666 0.191153 
1.917967 0.123255 0.197918 
1.916981 0.112488 0.204107 
1.916124 0.101371 0.209732 
1.915414 0.089912 0.214806 
1.914868 0.078115 0.219342 
1.914505 0.065990 0.223353 
1.914342 0.053541 0.226852 
1.914397 0.040775 0.229852 
1.891617 0.233116 0.000001 
1.890059 0.232335 0.016202 
1.888498 0.230621 0.031782 
1.886938 0.228034 0.046743 
1.885382 0.224629 0.061089 
1.883833 0.220464 0.074821 
1.882295 0.215595 0.087941 
1.880770 0.210080 0.100451 
1.879263 0.203976 0.112354 
1.877775 0.197339 0.123652 
1.876311 0.190227 0.134346 
1.874874 0.182696 0.144440 
1.873467 0.174804 0.153935 
1.872094 0.166595 0.162836 
1.870769 0.158072 0.171159 
1.869505 0.149223 0.178924 
1.868317 0.140036 0.186150 
1.867219 0.130503 0.192855 
1.866225 0.120611 0.199058 
1.865348 0.110350 0.204779 
1.864604 0.099709 0.210037 
1.864006 0.088678 0.214850 
1.863568 0.077246 0.219237 
1.863305 0.065403 0.223218 
1.863231 0.053136 0.226812 
1.841279 0.232499 0.000001 
1.839679 0.231775 0.016024 
1.838074 0.230143 0.031364 
1.836467 0.227665 0.046033 
1.834863 0.224403 0.060041 
1.833267 0.220419 0.073401 
1.831682 0.215776 0.086123 
1.830113 0.210535 0.098218 
1.828565 0.204760 0.109699 
1.827041 0.198512 0.120576 
1.825546 0.191853 0.130861 
1.824084 0.184846 0.140565 
1.822660 0.177553 0.149700 
1.821279 0.170021 0.158278 
1.819950 0.162238 0.166323 
1.818684 0.154176 0.173860 
1.817492 0.145808 0.180913 
1.816383 0.137105 0.187509 
1.815369 0.128042 0.193671 
1.814461 0.118590 0.199425 
1.813667 0.108721 0.204795 
1.813000 0.098409 0.209808 
1.812469 0.087626 0.214487 
1.812086 0.076343 0.218858 
1.811860 0.064535 0.222946 
1.790941 0.231766 0.000001 
1.789292 0.231072 0.015833 
1.787636 0.229499 0.030926 
1.785977 0.227114 0.045299 
1.784320 0.223982 0.058970 
1.782672 0.220171 0.071960 
1.781036 0.215746 0.084287 
1.779419 0.210774 0.095971 
1.777825 0.205320 0.107031 
1.776260 0.199450 0.117486 
1.774729 0.193232 0.127356 
1.773238 0.186730 0.136660 
1.771791 0.180012 0.145418 